# vtk DataFile Version 3.0.
comment
ASCII

DATASET POLYDATA
POINTS 37957 double
0.020196 0.0308164 0.00926136
0.0274351 0.021739 0.0906494
0.0298374 0.0345004 0.118593
0.00483296 0.0367525 0.116311
0.011174 0.0408904 0.122881
0.0215093 0.0218586 0.070846
0.0356297 0.0385056 0.0702597
0.0239815 0.0214454 0.0150868
0.0413025 0.00462738 0.111923
0.0049287 0.0137374 0.0164473
0.0313396 0.0125343 0.0822133
0.0396712 0.0339286 0.116955
0.0398651 0.0300756 0.0732537
0.0378808 0.0297116 0.0578124
0.0342895 0.00613653 0.0258819
0.0046082 0.0318702 0.0286805
0.0161472 0.0347766 0.0931922
0.0192106 0.00477907 0.0485441
0.0209733 0.0154119 0.04303
0.0340961 0.00708729 0.090504
0.0332344 0.00492766 0.067291
0.0130026 0.0259492 0.00478067
0.0239817 0.00478149 0.0953778
0.0363726 0.00753119 0.0422428
0.0278109 0.0135871 0.0260295
0.0241975 0.01012 0.0551192
0.0367592 0.0358783 0.0391736
0.0416012 0.0111509 0.118972
0.0178234 0.0165216 0.00572056
0.0216514 0.0279789 0.101509
0.0212545 0.00475304 0.076755
0.00478678 0.00935712 0.0252246
0.0166863 0.0107898 0.101854
0.00460565 0.0398346 0.0639774
0.0411433 0.0155375 0.0146601
0.0356283 0.0306533 0.0285135
0.00468241 0.0187609 0.0556803
0.0410502 0.0352801 0.0898712
0.0359891 0.0171223 0.0631784
0.0259115 0.013078 0.0999781
0.0110888 0.0046968 0.0628101
0.0141244 0.0341296 0.116564
0.00477837 0.00845907 0.048664
0.00745472 0.0187078 0.0880824
0.0165422 0.0124802 0.0627392
0.0160148 0.00476834 0.00971563
0.0392375 0.0154555 0.0878209
0.0210588 0.0164017 0.0788762
0.0264243 0.038028 0.0952112
0.00902685 0.00841611 0.00450743
0.0426873 0.0301822 0.0182406
0.0269634 0.0407711 0.111705
0.028476 0.0231173 0.0776576
0.0112648 0.0185368 0.122759
0.0122605 0.0285433 0.0537974
0.00455715 0.0176577 0.0415716
0.0176366 0.0103988 0.0853403
0.0119564 0.0364916 0.0589486
0.0107551 0.0421776 0.0198025
0.00456554 0.0382125 0.106627
0.0121277 0.0174852 0.0287244
0.00462617 0.00465491 0.109623
0.00971981 0.0246259 0.081007
0.0359033 0.0386658 0.014618
0.0384867 0.0216606 0.0300507
0.0045873 0.02172 0.0250474
0.0192551 0.0279829 0.0288725
0.0375265 0.0234076 0.099658
0.0274006 0.0317502 0.0402712
0.00938491 0.0102982 0.0362575
0.0312659 0.00449805 0.0580525
0.0411529 0.0387642 0.0606333
0.025093 0.021793 0.11669
0.0174011 0.0386539 0.0838271
0.0161107 0.023306 0.0453017
0.00827352 0.0351511 0.0986369
0.0417025 0.0203331 0.00445883
0.0298743 0.0289611 0.0968029
0.00462859 0.0325128 0.0489993
0.0415607 0.0301903 0.00442634
0.0276808 0.0230348 0.0278396
0.0117521 0.00750723 0.114929
0.01028 0.0161191 0.0487272
0.0246414 0.0432 0.0628356
0.0184013 0.0216245 0.0860182
0.00539549 0.0118772 0.0649384
0.0192853 0.0368953 0.0484581
0.0399641 0.0192168 0.0756072
0.018622 0.0269512 0.112982
0.0239377 0.0121773 0.0121108
0.00450362 0.00872888 0.0837791
0.0217554 0.0406915 0.0112018
0.0095312 0.0189109 0.00993448
0.0044543 0.0315791 0.0685504
0.0074507 0.021188 0.0727673
0.0116846 0.028501 0.0635839
0.0198549 0.0374927 0.0342001
0.00445748 0.00447651 0.0114526
0.0178534 0.0157559 0.113771
0.00435584 0.0367299 0.0146672
0.0137325 0.0238273 0.0365413
0.0248799 0.0082699 0.0643132
0.0375764 0.0255393 0.113306
0.030835 0.0109916 0.107578
0.0259478 0.0400103 0.0809448
0.0289095 0.0122654 0.0391872
0.0319933 0.0381844 0.0610007
0.00447752 0.0279675 0.0372639
0.0266721 0.00506009 0.0204883
0.00447002 0.0249094 0.115489
0.029936 0.0329215 0.0540713
0.0212236 0.0428907 0.104397
0.0317554 0.00764991 0.011776
0.0325433 0.0043398 0.0992169
0.0335095 0.0146148 0.0474768
0.0204797 0.0167262 0.122639
0.00462456 0.0340134 0.0818694
0.0109624 0.037397 0.00884478
0.020193 0.0118589 0.0710512
0.00436151 0.0235183 0.0646646
0.0395919 0.0119174 0.106516
0.0144604 0.00437961 0.0316326
0.039934 0.0200176 0.0495877
0.0193169 0.00776769 0.110179
0.00832874 0.0194429 0.108254
0.00418346 0.0231781 0.00430076
0.0261786 0.0207421 0.00407609
0.00562356 0.022435 0.100424
0.0186497 0.00427525 0.0239735
0.0390172 0.0331548 0.107595
0.0405526 0.0386432 0.0469643
0.0400701 0.00423953 0.0139865
0.0432349 0.0348647 0.0329564
0.0202387 0.0205062 0.106671
0.039942 0.0250519 0.0870043
0.0167636 0.0352156 0.107955
0.0320584 0.0183963 0.0186881
0.0223895 0.0139018 0.0335318
0.0350646 0.00810564 0.128716
0.00834052 0.0083899 0.0952056
0.0320934 0.0301538 0.0880567
0.0181238 0.0377142 0.0654617
0.0297257 0.0339471 0.0757229
0.0318037 0.0041749 0.0783467
0.0231582 0.00426134 0.00424433
0.0280537 0.0125517 0.121384
0.0323955 0.0186698 0.0550035
0.0226105 0.0376881 0.125663
0.0340736 0.00413876 0.117648
0.0138282 0.0105899 0.01626
0.0305869 0.0265287 0.0698234
0.0186416 0.0420665 0.041475
0.0356759 0.014181 0.00780311
0.0104578 0.00408813 0.0432164
0.0297063 0.0296037 0.0620506
0.0315963 0.00401501 0.00408058
0.0217019 0.0310354 0.0714289
0.00415955 0.0273497 0.0873509
0.00414774 0.0041845 0.0689921
0.0207869 0.0258882 0.0529951
0.0154507 0.00407385 0.122027
0.0114464 0.0392859 0.0776633
0.0323138 0.0283419 0.10525
0.0302489 0.023431 0.0388194
0.0262656 0.0270672 0.123498
0.0369125 0.00396091 0.0341542
0.0162833 0.0226715 0.0592207
0.00722202 0.0365061 0.0417462
0.0168988 0.036077 0.0262198
0.0234605 0.0364037 0.0184221
0.0119498 0.0191102 0.0958204
0.00395996 0.0421503 0.095739
0.00785773 0.0103536 0.0567372
0.0281472 0.0125123 0.00458761
0.0324604 0.0411437 0.051865
0.0144564 0.0350942 0.0161486
0.0196832 0.0268278 0.0784908
0.0176986 0.0301889 0.0856928
0.0112203 0.0375269 0.0346822
0.0390405 0.00404882 0.0740706
0.0107194 0.0271255 0.0923533
0.00841053 0.0273713 0.0183519
0.0136683 0.0196129 0.0669964
0.0366919 0.0158038 0.03878
0.0320913 0.0167135 0.115463
0.0247282 0.00475419 0.0414278
0.0300242 0.0345909 0.127623
0.00743958 0.014357 0.0779561
0.0327298 0.00389309 0.049521
0.0389513 0.00970312 0.0976473
0.00736406 0.0297693 0.0106856
0.0301185 0.0400975 0.00546882
0.024207 0.0347953 0.087445
0.0324347 0.041963 0.125526
0.0181273 0.0264354 0.123383
0.0424185 0.0118005 0.00393505
0.0272588 0.0361501 0.0681181
0.0110531 0.0384655 0.0697
0.0191746 0.0040116 0.0592763
0.0349472 0.0355823 0.0821283
0.0134845 0.0187388 0.0172223
0.0266333 0.00384056 0.0869104
0.0251174 0.0275249 0.0843378
0.0375358 0.0229833 0.0423577
0.0143033 0.0102406 0.0773988
0.0100892 0.00398942 0.0748797
0.0129176 0.0279976 0.0999294
0.00942415 0.00395223 0.0182284
0.0280982 0.0217329 0.0637246
0.0319835 0.0210621 0.108809
0.036506 0.0146319 0.0245578
0.0307725 0.0391857 0.087756
0.00371284 0.0413624 0.0778795
0.0184053 0.00393398 0.0676076
0.0422054 0.0353283 0.025033
0.0420535 0.0322264 0.081501
0.0242538 0.0320937 0.109335
0.0319325 0.0353833 0.046427
0.0297205 0.0304216 0.0158408
0.0388134 0.0439305 0.109156
0.00895843 0.0393629 0.0274781
0.00826437 0.012528 0.103611
0.00368183 0.00449964 0.0389014
0.022909 0.0174441 0.0597726
0.0276129 0.0042825 0.122617
0.0382527 0.027623 0.0361774
0.00378161 0.00790293 0.117711
0.0219908 0.00385098 0.117244
0.0188672 0.020708 0.0245095
0.0214388 0.0179154 0.0522389
0.0163558 0.00870065 0.0935335
0.0120379 0.0108094 0.0699666
0.0296192 0.0277742 0.112761
0.0389968 0.0126971 0.0533137
0.0193162 0.0333973 0.0560556
0.0425573 0.0163488 0.100464
0.0447886 0.0207639 0.0662783
0.0244007 0.00380193 0.012543
0.0263144 0.00370893 0.110832
0.0359715 0.0254022 0.0217109
0.0154599 0.00987345 0.0545684
0.0299593 0.0371036 0.0273286
0.0336047 0.0208266 0.0841019
0.00395581 0.0378583 0.00381448
0.0226556 0.0289432 0.0924156
0.0177352 0.0299735 0.0209607
0.0170813 0.0368178 0.00357165
0.0217358 0.0143801 0.0198702
0.00366411 0.0380106 0.0889896
0.00365809 0.02905 0.0951204
0.00367056 0.0150348 0.00372352
0.0151382 0.0317668 0.0380225
0.0306475 0.0201743 0.122637
0.00610115 0.0206064 0.0337916
0.00376639 0.00374911 0.090435
0.0289697 0.00961506 0.0731374
0.00853737 0.0321886 0.12288
0.0036795 0.0280178 0.076194
0.0378754 0.0221389 0.124741
0.0295138 0.0251837 0.0512915
0.0175682 0.0091464 0.0380323
0.00818043 0.0242119 0.0477114
0.00357317 0.015593 0.121049
0.021545 0.00870985 0.12393
0.0141045 0.00371392 0.0814924
0.0217547 0.0293617 0.0459291
0.0346965 0.0365211 0.0952245
0.0389774 0.0191666 0.118027
0.0133662 0.00363694 0.088868
0.0192029 0.0118607 0.0264751
0.0363071 0.0231974 0.0140687
0.0310477 0.014506 0.093529
0.0319054 0.0352762 0.101767
0.00392005 0.030567 0.109797
0.0242823 0.0351699 0.0612469
0.0251064 0.0268007 0.0343349
0.022598 0.02392 0.0402962
0.0247608 0.0357862 0.10294
0.0211039 0.0190057 0.130301
0.0262156 0.0286598 0.00353941
0.0423605 0.0139875 0.0677377
0.037599 0.0231262 0.0688196
0.0242756 0.022267 0.0470038
0.0233802 0.041729 0.119091
0.00985513 0.0318418 0.105986
0.0216998 0.0320872 0.119753
0.00356944 0.0383491 0.0225057
0.0328703 0.0408758 0.106037
0.0432351 0.00827276 0.0573875
0.0242963 0.0355628 0.00348581
0.0255991 0.0154657 0.111652
0.0122938 0.00589126 0.107008
0.0126157 0.0163648 0.0566142
0.00346982 0.0171082 0.113997
0.0266203 0.0414194 0.032286
0.00352751 0.00783953 0.0757859
0.0144373 0.0104009 0.0446336
0.0360877 0.0288605 0.122658
0.00338949 0.0392166 0.125653
0.0120857 0.0301197 0.0318511
0.00345942 0.00351132 0.0597565
0.0367253 0.00964691 0.0185889
0.017659 0.043914 0.0591606
0.0385069 0.027829 0.0496156
0.00350981 0.0268777 0.12308
0.0410805 0.00790255 0.064438
0.0137599 0.0260492 0.0740925
0.0391524 0.0109078 0.0318899
0.0225586 0.00439039 0.103626
0.00984618 0.0294309 0.0429792
0.0132115 0.0172286 0.0817739
0.0145254 0.0167589 0.0738567
0.0129681 0.00959514 0.0238329
0.0113524 0.0317141 0.02377
0.0301909 0.0186399 0.0103362
0.00999339 0.00342797 0.100916
0.0384839 0.00592517 0.00667756
0.012818 0.0321002 0.0798892
0.0279206 0.0355871 0.0110019
0.0284131 0.0088879 0.0462806
0.00344996 0.0137327 0.0980473
0.0383661 0.00462836 0.0542332
0.0106456 0.0397452 0.0893084
0.0239589 0.0334992 0.0252432
0.0264936 0.0105368 0.0899586
0.00378171 0.00690274 0.101295
0.0291139 0.0177944 0.0336209
0.037287 0.0165273 0.0955953
0.0399422 0.0375292 0.0769979
0.0235397 0.0424077 0.00317945
0.0189543 0.0205099 0.0317454
[...]
POINT_DATA 37957
SCALARS radius double 1
LOOKUP_TABLE default
0.00503932
0.00503796
0.0050298
0.00502844
0.00502572
0.00502301
0.00501757
0.00501485
0.00500533
0.00500261
0.00500125
0.0049931
0.00499174
0.00498902
0.00498766
0.0049863
0.00498222
0.00498086
0.0049659
0.00496455
0.00496319
0.00495503
0.00494823
0.00494143
0.00493328
0.00493056
0.00492104
0.00491288
0.0049088
0.00490473
0.00490201
0.00489793
0.00489113
0.00488841
0.00487482
0.0048721
0.00486258
0.00485578
0.00485034
0.00484355
0.00484219
0.00483675
0.00482859
0.00482043
0.00481364
0.00481228
0.00479596
0.00479188
0.0047878
0.00477557
0.00477421
0.00476877
0.00476333
0.00476197
0.00475925
0.00475382
0.00475246
0.00474294
0.00474022
0.0047307
0.00472934
0.00472662
0.00471847
0.00471303
0.00470623
0.00469943
0.00469535
0.004694
0.0046872
0.00468584
0.00468312
0.00467632
0.0046736
0.00467224
0.00466544
0.00466137
0.00464369
0.00464233
0.00463146
0.00462738
0.00462602
0.00462466
0.00460427
0.00460291
0.00460155
0.00459883
0.00459747
0.00459475
0.00459339
0.00459203
0.00459067
0.00458387
0.00457707
0.00456892
0.00456756
0.00455804
0.00455396
0.00455124
0.00454445
0.00454173
0.00453901
0.00452405
0.00452133
0.00451997
0.00451454
0.00451182
0.00451046
0.00450638
0.00450502
0.00450366
0.00450094
0.00449142
0.00448327
0.00447919
0.00447647
0.00445879
0.00445336
0.00444656
0.00443704
0.00443568
0.00443296
0.00442888
0.00442209
0.00441801
0.00441665
0.00441393
0.00440985
0.00440305
0.0043881
0.00438674
0.00437586
0.0043745
0.00437042
0.00436634
0.00435683
0.00435547
0.00435275
0.00435139
0.00433915
0.00432964
0.00432828
0.00432284
0.00432148
0.00431876
0.00431332
0.00430652
0.00430245
0.00428749
0.00427525
0.00425894
0.00425214
0.00425078
0.00424399
0.00423855
0.00423583
0.00422631
0.00421815
0.00421272
0.00421
0.00420864
0.00419912
0.00419776
0.00419504
0.00418824
0.00418688
0.00418417
0.00417737
0.00417329
0.00416649
0.00415969
0.00415697
0.00415154
0.00414202
0.00413522
0.00412299
0.00412163
0.00411755
0.00411347
0.00410803
0.00409987
0.00409851
0.00409579
0.00409172
0.00408764
0.00408356
0.0040822
0.00406996
0.00406724
0.00406588
0.00406317
0.00406181
0.00406045
0.00405637
0.00404957
0.00403462
0.0040319
0.00402918
0.00402782
0.00402646
0.00402238
0.00402102
0.00401966
0.0040183
0.00401694
0.00400606
0.00400335
0.00400063
0.00399927
0.00399519
0.00398431
0.00398295
0.00397751
0.00396392
0.00396256
0.00395304
0.00395168
0.00393673
0.00393537
0.00393129
0.00392857
0.00391362
0.00391226
0.00390682
0.00389866
0.0038973
0.00389594
0.00389458
0.00389322
0.00388778
0.00388235
0.00387691
0.00387147
0.00387011
0.00386603
0.00386467
0.00386331
0.00385923
0.00385515
0.0038538
0.00385244
0.00385108
0.00384428
0.00383476
0.00383068
0.00382932
0.00381981
0.00381845
0.00381573
0.00381029
0.00380893
0.00380349
0.00380213
0.00379941
0.00379805
0.00379533
0.0037899
0.00378854
0.00378446
0.0037831
0.00378174
0.00377766
0.00377086
0.00375455
0.00374775
0.00374639
0.00373416
0.00371784
0.0037056
0.00369881
0.00369473
0.00368385
0.00367977
0.00367841
0.0036485
0.00364714
0.00364171
0.00363355
0.00362675
0.00362539
0.00362131
0.00361859
0.00361723
0.0036118
0.00361044
0.00360772
0.003605
0.00358868
0.00357373
0.00357101
0.00356829
0.00356149
0.00355877
0.00355605
0.0035547
0.00354654
0.00353566
0.00353294
0.00352614
0.00352207
0.00351935
0.00351799
0.00351663
0.00351391
0.00351119
0.00350983
0.00350711
0.00350031
0.00349623
0.00349216
0.00348536
0.003484
0.00348264
0.0034772
0.00347448
0.00347176
0.00346904
0.00346632
0.00346497
0.00345817
0.00345409
0.00345137
0.00344185
0.00344049
0.00343913
0.00343777
0.00342146
0.0034201
0.00341602
0.00341058
0.00340379
0.00339019
0.00337795
0.00337116
0.0033698
0.00336844
0.00336708
0.00335892
0.00335348
0.00334804
0.00334668
0.00333989
0.00333853
0.00333037
0.00332357
0.00331949
0.00330454
0.00330046
0.0032991
0.00329638
0.0032923
0.00328958
0.00328143
0.00328007
0.00327871
0.00327735
0.00327327
0.00325967
0.00325831
0.00325016
0.0032488
0.00324608
0.00323928
0.00323656
0.0032352
0.00323384
0.00323248
0.00323112
0.00321481
0.00321073
0.00320937
0.00320121
0.00319849
0.00319713
0.00319034
0.00318762
0.00318626
0.0031849
0.00317946
0.0031781
0.00317674
0.00317402
0.00316043
0.00315907
0.00315771
0.00315635
0.00315363
0.00315091
0.00314547
0.00313867
0.00313188
0.00312916
0.00312508
0.00311284
0.00310876
0.00310604
0.00310333
0.00309789
0.00309653
0.00308973
0.00308293
0.00307749
0.00307478
0.00307342
0.00307206
0.00306934
0.00306118
0.00305166
0.00304894
0.00304622
0.00303399
0.00302311
0.0030136
0.00300544
0.00300136
0.00299864
0.00299456
0.00299184
0.00298912
0.00298233
0.00297825
0.00297145
0.00297009
0.00296873
0.00296329
0.00296057
0.00295921
0.00295785
0.00295106
0.00294834
0.00294426
0.0029429
0.00294154
0.0029361
0.00292658
0.00292115
0.00291979
0.00291707
0.00291435
0.00291299
0.00290755
0.00290619
0.00290483
0.00290211
0.00289396
0.0028858
0.00288444
0.002879
0.00287492
0.0028722
0.00286948
0.00286676
0.0028654
0.00286405
0.00286269
0.00285861
0.00284909
0.00284637
0.00283957
0.00283685
0.00283142
0.00282734
0.00282462
0.00282054
0.00281646
0.00281374
0.00280694
0.00280287
0.00280151
0.00279471
0.00279063
0.00278927
0.00278655
0.00277296
0.0027716
0.00276072
0.00275256
0.00274984
0.00274305
0.00274169
0.00274033
0.00273761
0.00273489
0.00273353
0.00273217
0.00272945
0.00272537
0.00272265
0.0027077
0.00270362
0.00269274
0.00268866
0.0026873
0.00267507
0.00267371
0.00266827
0.00266419
0.00265739
0.00264924
0.00264516
0.0026438
0.00264108
0.00263972
0.00262748
0.00262612
0.00262341
0.00262069
0.00261661
0.00261389
0.00261253
0.00261117
0.00260981
0.00260845
0.00260437
0.0025935
0.00259078
0.00258806
0.00257718
0.0025731
0.0025663
0.00255951
0.00255815
0.00255543
0.00254591
0.00254319
0.00253911
0.00253775
0.00253096
0.00252416
0.0025228
0.00252144
0.00251736
0.00251192
0.0025092
0.00250241
0.00249969
0.00249561
0.00249289
0.00248201
0.00248065
0.00247793
0.00247521
0.0024725
0.00246978
0.0024657
0.00245346
0.0024521
0.00245074
0.00244259
0.00243715
0.00243443
0.00243171
0.00242899
0.00242627
0.00242491
0.00242355
0.00241811
0.00241132
0.00239908
0.00239228
0.00238277
0.00237597
0.00237461
0.00237053
0.00236917
0.00236509
0.00235693
0.00235286
0.00235014
0.00234878
0.00234742
0.0023447
0.00234198
0.00234062
0.0023379
0.00233654
0.00233382
0.00233246
0.00232431
0.00231207
0.00230799
0.00230663
0.00230255
0.00229983
0.00229575
0.0022876
0.00228488
0.0022808
0.00227264
0.00226992
0.0022672
0.00226584
0.00225905
0.00225769
0.00224953
0.00224817
0.00224681
0.00224409
0.00224273
0.00223186
0.00222778
0.00222234
0.0022169
0.00221554
0.00221282
0.00219651
0.00219515
0.00218835
0.00218699
0.0021734
0.00217204
0.00216932
0.00216796
0.00216116
0.00215708
0.002153
0.00215028
0.00214485
0.00214213
0.00213941
0.00213533
0.00213397
0.00213125
0.00212581
0.00212309
0.00211901
0.00211222
0.00210678
0.00210542
0.00209998
0.00209862
0.0020959
0.00208367
0.00207959
0.00207687
0.00207551
0.00207415
0.00207007
0.00206463
0.00205783
0.00205376
0.00204832
0.00204696
0.0020456
0.00203472
0.00202656
0.00201977
0.00201569
0.00201433
0.00201161
0.00200889
0.00200753
0.00200617
0.00200481
0.00199258
0.00198714
0.00198578
0.00197898
0.00197218
0.00197082
0.00196403
0.00196131
0.00195859
0.00195587
0.00195451
0.00194499
0.00194227
0.00194091
0.00193955
0.00192596
0.0019246
0.00192052
0.00191508
0.001911
0.00190692
0.00190556
0.00190013
0.00189877
0.00189061
0.00188789
0.00188653
0.00188381
0.00187973
0.00187837
0.00186478
0.0018607
0.00185798
0.0018539
0.00184574
0.00183895
0.00183215
0.00182807
0.00182671
0.00182127
0.00180904
0.00178457
0.00178321
0.00178185
0.00177913
0.00176961
0.00176825
0.00176689
0.00176553
0.00175737
0.00175601
0.00175194
0.00175058
0.00174922
0.00174786
0.00174242
0.00173698
0.00172746
0.00172203
0.00171659
0.00171115
0.00170299
0.00170163
0.00169755
0.00169212
0.00168804
0.0016758
0.00167308
0.00166357
0.00165949
0.00165405
0.00165133
0.00164997
0.00164861
0.00164453
0.00164181
0.00163773
0.00162686
0.0016255
0.00162414
0.00162278
0.00162142
0.0016119
0.0016051
0.00159967
0.00159151
0.00158607
0.00158471
0.00158063
0.00157791
0.00157248
0.00155616
0.0015548
0.00155344
0.00154121
0.00153849
0.00153713
0.00153577
0.00152217
0.00151809
0.0015113
0.00150994
0.00150586
0.0014977
0.00149226
0.00148954
0.00148546
0.00148003
0.00147595
0.00147323
0.00146643
0.00146507
0.00146371
0.00146235
0.00145963
0.0014542
0.00145284
0.00145148
0.00145012
0.0014474
0.00144468
0.00143924
0.00143244
0.00142972
0.00142564
0.00142429
0.00142157
0.00142021
0.00141205
0.00140253
0.00139709
0.00139438
0.00139302
0.00138758
0.00138486
0.00137806
0.00137398
0.00137262
0.00136854
0.00136718
0.00136582
0.00136311
0.00135903
0.00135631
0.00135087
0.00134951
0.00134679
0.00134271
0.00133591
0.00133184
0.00132912
0.00131824
0.00131552
0.00130872
0.00130736
0.001306
0.00130193
0.00129785
0.00129649
0.00129241
0.00128969
0.00128833
0.00128017
0.00127745
0.00127609
0.00127338
0.00126794
0.00126658
0.0012625
0.00126114
0.00125978
0.00125298
0.00125162
0.00124754
0.00124618
0.00124347
0.00123939
0.00123531
0.00121899
0.0012122
0.00120812
0.00120676
0.00120132
0.00119996
0.00119044
0.00118636
0.00117957
0.00117413
0.00117005
0.00116189
0.00115917
0.00115645
0.00115374
0.00115238
0.00114694
0.00114422
0.00114014
0.00113742
0.00113606
0.00113334
0.00113198
0.00113062
0.00112926
0.00112518
0.00111703
0.00111567
0.00111159
0.00111023
0.00109935
0.00109256
0.0010912
0.00108984
0.00108712
0.00108032
0.00107896
0.00106265
0.00105721
0.00105585
0.00105177
0.00104905
0.00104497
0.00104089
0.00103953
0.00103817
0.00103681
0.00102322
0.00102186
0.0010205
0.0010137
0.000993309
0.000991949
0.00098923
0.000987871
0.000986511
0.000985152
0.000976994
0.000971556
0.00503932
0.00503796
0.00503252
0.0050298
0.00502844
0.00502572
0.00502301
0.00501757
0.00501485
0.00500669
0.00500533
0.00500397
0.00500261
0.00500125
0.00499717
0.0049931
0.00499174
0.00498902
0.00498766
0.0049863
0.00498222
0.00498086
0.0049795
0.0049659
0.00496455
0.00496319
0.00496047
0.00495503
0.00494823
0.00494687
0.00494415
0.00494143
0.00493871
0.00493328
0.00493056
0.00492784
0.00492648
0.00492104
0.00491424
0.00491288
0.00491152
0.0049088
0.00490473
0.00490201
0.00489929
0.00489793
0.00489385
0.00489113
0.00488841
0.00487482
0.0048721
0.00487074
0.00486258
0.0048585
0.00485714
0.00485578
0.00485442
0.00485034
0.00484355
0.00484219
0.00484083
0.00483947
0.00483811
0.00483675
0.00483403
0.00483267
0.00482859
0.00482451
0.00482043
0.00481771
0.00481635
0.00481364
0.00481228
0.0048082
0.00480276
0.00479596
0.00479188
0.0047878
0.00477693
0.00477557
0.00477421
0.00476877
0.00476333
0.00476197
0.00475925
0.00475382
0.00475246
0.00474294
0.00474022
0.00473342
0.0047307
0.00472934
0.00472798
0.00472662
0.00471847
0.00471303
0.00470623
0.00469943
0.00469535
0.004694
0.00468992
0.00468856
0.0046872
0.00468584
0.00468312
0.00467768
0.00467632
0.0046736
0.00467224
0.00466816
0.0046668
0.00466544
0.00466137
0.00465593
0.00465457
0.00464369
0.00464233
0.00463961
0.00463418
0.00463146
0.00462738
0.00462602
0.00462466
0.0046097
0.00460562
0.00460427
0.00460291
0.00460155
0.00459883
0.00459747
0.00459475
0.00459339
0.00459203
0.00459067
0.00458795
0.00458387
0.00457843
0.00457707
0.00457164
0.00457028
0.00456892
0.00456756
0.00455804
0.00455396
0.00455124
0.00454988
0.00454445
0.00454173
0.00454037
0.00453901
0.00453629
0.00452405
0.00452133
0.00451997
0.00451454
0.00451182
0.00451046
0.00450638
0.00450502
0.00450366
0.00450094
0.00449142
0.00448327
0.00447919
0.00447647
0.00447375
0.00446559
0.00446151
0.00445879
0.00445336
0.00444656
0.00443704
0.00443568
0.00443296
0.00443024
0.00442888
0.00442209
0.00441801
0.00441665
0.00441393
0.00440985
0.00440441
0.00440305
0.00440033
0.00439218
0.0043881
0.00438674
0.00438402
0.00437586
0.0043745
0.00437042
0.0043677
0.00436634
0.00436363
0.00436091
0.00435683
0.00435547
0.00435275
0.00435139
0.00433915
0.00433507
0.00433236
0.00432964
0.00432828
0.0043242
0.00432284
0.00432148
0.00431876
0.00431332
0.00430652
0.00430516
0.00430245
0.00429837
0.00429021
0.00428749
0.00428341
0.00428069
0.00427525
0.0042739
0.00425894
0.00425214
0.00425078
0.00424399
0.00423991
0.00423855
0.00423583
0.00423039
0.00422631
0.00422495
0.00422223
0.00421815
0.00421679
0.00421272
0.00421
0.00420864
0.00420728
0.00420456
0.00419912
0.00419776
0.00419504
0.0041896
0.00418824
0.00418688
0.00418417
0.00417737
0.00417329
0.00417193
0.00416649
0.00416377
0.00415969
0.00415697
0.00415154
0.00414882
0.0041461
0.00414202
0.00413658
0.00413522
0.00412842
0.00412706
0.00412299
0.00412163
0.00412027
0.00411755
0.00411483
0.00411347
0.00410939
0.00410803
0.00409987
0.00409851
0.00409579
0.00409444
0.00409172
0.00408764
0.00408628
0.00408492
0.00408356
0.0040822
0.00407948
0.00406996
0.00406724
0.00406588
0.00406317
0.00406181
0.00406045
0.00405773
0.00405637
0.00405365
0.00405229
0.00404957
0.00404821
0.00403462
0.0040319
0.00402918
0.00402782
0.00402646
0.00402238
0.00402102
0.00401966
0.0040183
0.00401694
0.00401558
0.00400606
0.00400335
0.00400199
0.00400063
0.00399927
0.00399519
0.00399383
0.00399111
0.00398703
0.00398567
0.00398431
0.00398295
0.00397751
0.0039748
0.00397072
0.00396936
0.00396664
0.00396392
0.00396256
0.00395576
0.0039544
0.00395304
0.00395168
0.00394489
0.00393809
0.00393673
0.00393537
0.00393129
0.00392857
0.00392449
0.00391769
0.00391362
0.00391226
0.00390954
0.00390682
0.00390138
0.00389866
0.0038973
0.00389594
0.00389458
0.00389322
0.00388778
0.00388506
0.00388235
0.00388099
0.00387691
0.00387555
0.00387147
0.00387011
0.00386603
0.00386467
0.00386331
0.00386195
0.00385923
0.00385787
0.00385515
0.0038538
0.00385244
0.00385108
0.00384428
0.00383476
0.00383068
0.00382932
0.00382796
0.00382524
0.00381981
0.00381845
0.00381573
0.00381029
0.00380893
0.00380485
0.00380349
0.00380213
0.00379941
0.00379805
0.00379533
0.00379398
0.00379262
0.00379126
0.0037899
0.00378854
0.00378446
0.0037831
0.00378174
0.00377766
0.00377222
0.00377086
0.00376678
0.00376407
0.00376271
0.00375863
0.00375727
0.00375591
0.00375455
0.00375047
0.00374775
0.00374639
0.00373416
0.00371784
0.00371512
0.0037124
0.0037056
0.00370425
0.00370017
0.00369881
0.00369473
0.00369337
0.00368385
0.00367977
0.00367841
0.00367705
0.0036485
0.00364714
0.00364171
0.00363491
0.00363355
0.00362675
0.00362539
0.00362131
0.00361859
0.00361723
0.00361452
0.0036118
0.00361044
0.00360772
0.00360636
0.003605
0.00359956
0.00359548
0.0035914
0.00358868
0.00357917
0.00357509
0.00357373
0.00357237
0.00357101
0.00356829
0.00356421
0.00356285
0.00356149
0.00355877
0.00355605
0.0035547
0.00355334
0.00354926
0.00354654
0.00353566
0.00353294
0.00352614
0.00352207
0.00351935
0.00351799
0.00351663
0.00351527
0.00351391
0.00351255
0.00351119
0.00350983
0.00350711
0.00350439
0.00350031
0.00349895
0.00349623
0.00349352
0.00349216
0.0034908
0.00348536
0.003484
0.00348264
0.0034772
0.00347448
0.00347176
0.00346904
0.00346632
0.00346497
0.00346089
0.00345817
0.00345409
0.00345137
0.00344729
0.00344593
0.00344321
0.00344185
0.00344049
0.00343913
0.00343777
0.00342418
0.00342146
0.0034201
0.00341738
0.00341602
0.0034133
0.00341194
0.00341058
0.00340786
0.00340379
0.00339835
0.00339019
0.00338883
0.00338339
0.00337795
0.00337388
0.00337252
0.00337116
0.0033698
0.00336844
0.00336708
0.00336028
0.00335892
0.00335484
0.00335348
0.00335212
0.00334804
0.00334668
0.00334261
0.00333989
0.00333853
0.00333717
0.00333173
0.00333037
0.00332357
0.00332085
0.00331949
0.00331134
0.0033059
0.00330454
0.00330046
0.0032991
0.00329638
0.0032923
0.00328958
0.00328415
0.00328279
0.00328143
0.00328007
0.00327871
0.00327735
0.00327327
0.00325967
0.00325831
0.00325695
0.00325016
0.0032488
0.00324608
0.00323928
0.00323792
0.00323656
0.0032352
0.00323384
0.00323248
0.00323112
0.00322976
0.00322297
0.00321481
0.00321073
0.00320937
0.00320257
0.00320121
0.00319849
0.00319713
0.00319306
0.00319034
0.00318762
0.00318626
0.0031849
0.00318354
0.00317946
0.0031781
0.00317674
0.00317538
0.00317402
0.00316315
0.00316043
0.00315907
0.00315771
0.00315635
0.00315363
0.00315091
0.00314683
0.00314547
0.00314275
0.00313867
0.00313188
0.00312916
0.00312508
0.00311828
0.00311692
0.00311556
0.0031142
0.00311284
0.00310876
0.00310604
0.00310333
0.00310061
0.00309789
0.00309653
0.00308973
0.00308565
0.00308429
0.00308293
0.00307749
0.00307478
0.00307342
0.00307206
0.00306934
0.00306798
0.00306254
0.00306118
0.00305574
0.00305302
0.00305166
0.00304894
0.00304622
0.00303399
0.00303127
0.00302447
0.00302311
0.00302175
0.00301903
0.00301767
0.0030136
0.0030068
0.00300544
0.00300272
0.00300136
0.00299864
0.00299728
0.00299592
0.00299456
0.00299184
0.00298912
0.00298504
0.00298233
0.00297825
0.00297689
0.00297145
0.00297009
0.00296873
0.00296329
0.00296193
0.00296057
0.00295921
0.00295785
0.00295649
0.00295106
0.00294834
0.00294426
0.0029429
0.00294154
0.0029361
0.00293202
0.00292794
0.00292658
0.00292522
0.00292115
0.00291979
0.00291707
0.00291435
0.00291299
0.00290755
0.00290619
0.00290483
0.00290211
0.00290075
0.00289939
0.00289396
0.0028858
0.00288444
0.00288308
0.002879
0.00287764
0.00287628
0.00287492
0.0028722
0.00286948
0.00286676
0.0028654
0.00286405
0.00286269
0.00286133
0.00285861
0.00285725
0.00285045
0.00284909
0.00284773
0.00284637
0.00283957
0.00283685
0.00283142
0.00282734
0.00282462
0.0028219
0.00282054
0.00281918
0.00281646
0.0028151
0.00281374
0.00280966
0.00280694
0.00280287
0.00280151
0.00280015
0.00279471
0.00279063
0.00278927
0.00278655
0.00278111
0.00277296
0.0027716
0.00276752
0.0027648
0.00276208
0.00276072
0.00275528
0.00275256
0.00274984
0.00274305
0.00274169
0.00274033
0.00273897
0.00273761
0.00273489
0.00273353
0.00273217
0.00272945
0.00272537
0.00272265
0.00271857
0.0027077
0.00270634
0.00270498
0.00270362
0.00269274
0.00269138
0.00269002
0.00268866
0.0026873
0.00268323
0.00268051
0.00267643
0.00267507
0.00267371
0.00266963
0.00266827
0.00266691
0.00266419
0.00265875
0.00265739
0.00264924
0.00264788
0.00264516
0.0026438
0.00264108
0.00263972
0.00263836
0.00263428
0.00263292
0.00262748
0.00262612
0.00262341
0.00262069
0.00261661
0.00261389
0.00261253
0.00261117
0.00260981
0.00260845
0.00260437
0.0025935
0.00259078
0.00258806
0.0025867
0.00257854
0.00257718
0.00257582
0.0025731
0.0025663
0.00256495
0.00256223
0.00255951
0.00255815
0.00255543
0.00254999
0.00254863
0.00254591
0.00254319
0.00253911
0.00253775
0.00253096
0.00252416
0.0025228
0.00252144
0.00251736
0.00251192
0.0025092
0.00250241
0.00249969
0.00249833
0.00249561
0.00249289
0.00248337
0.00248201
0.00248065
0.00247929
0.00247793
0.00247521
0.0024725
0.00246978
0.00246842
0.00246706
0.0024657
0.00246434
0.00245346
0.0024521
0.00245074
0.00244395
0.00244259
0.00243715
0.00243443
0.00243171
0.00242899
0.00242763
0.00242627
0.00242491
0.00242355
0.00242219
0.00241811
0.00241675
0.00241132
0.00240996
0.00240316
0.0024018
0.00239908
0.00239228
0.00238684
0.00238548
0.00238277
0.00237597
0.00237461
0.00237189
0.00237053
0.00236917
0.00236509
0.00236373
0.00236101
0.00235693
0.00235422
0.00235286
0.00235014
0.00234878
0.00234742
0.0023447
0.00234198
0.00234062
0.0023379
0.00233654
0.00233382
0.00233246
0.00232974
0.00232431
0.00232295
0.00231207
0.00231071
0.00230799
0.00230663
0.00230255
0.00229983
0.00229711
0.00229575
0.0022876
0.00228488
0.0022808
0.002274
0.00227264
0.00226992
0.0022672
0.00226584
0.00225905
0.00225769
0.00224953
0.00224817
0.00224681
0.00224409
0.00224273
0.00224137
0.00223186
0.0022305
0.00222914
0.00222778
0.00222506
0.00222234
0.00221962
0.0022169
0.00221554
0.00221282
0.00220059
0.00219651
0.00219515
0.00219379
0.00218835
0.00218699
0.0021734
0.00217204
0.00216932
0.00216796
0.00216524
0.00216252
0.00216116
0.00215708
0.002153
0.00215164
0.00215028
0.00214485
0.00214213
0.00213941
0.00213669
0.00213533
0.00213397
0.00213261
0.00213125
0.00212581
0.00212309
0.00211901
0.00211222
0.00210678
0.00210542
0.00209998
0.00209862
0.00209726
0.0020959
0.00208367
0.00207959
0.00207687
0.00207551
0.00207415
0.00207279
0.00207143
0.00207007