# vtk DataFile Version 3.0.
comment
ASCII

DATASET POLYDATA
POINTS 32442 double
0.0106435 0.0312112 0.0178911
0.0357652 0.0043642 0.0352353
0.0159516 0.0103063 0.0146198
0.022254 0.029929 0.0817411
0.0175857 0.00442428 0.0434802
0.0044658 0.00433902 0.0314174
0.0180162 0.00466595 0.0630292
0.0181318 0.0320307 0.0523913
0.02768 0.0168405 0.0851881
0.0333249 0.0153468 0.108789
0.0108616 0.00427076 0.0376325
0.0238568 0.0248722 0.00628148
0.032553 0.0302106 0.0898413
0.0294833 0.00910426 0.0200672
0.00851417 0.0286183 0.0317265
0.022393 0.0188168 0.0353346
0.0311813 0.0156737 0.064172
0.0216657 0.0323266 0.039056
0.0269234 0.00430651 0.10693
0.0205188 0.0146273 0.0278302
0.00421182 0.0042752 0.0646272
0.0077191 0.0157566 0.0484875
0.031103 0.0336573 0.0995588
0.0328831 0.00894139 0.0543084
0.00829248 0.0261398 0.0109516
0.00430103 0.0246402 0.0449663
0.029794 0.0303164 0.0165021
0.00418246 0.0386459 0.0221567
0.00883123 0.0111695 0.0197627
0.0126697 0.0293802 0.00414251
0.00937138 0.00435521 0.0142633
0.0304146 0.0215037 0.0496285
0.0042078 0.0216918 0.0608952
0.0224298 0.0127498 0.0650499
0.0172926 0.00449796 0.0892849
0.0174003 0.00868797 0.0759231
0.0298534 0.0147762 0.0375269
0.0329367 0.01025 0.0981043
0.00965886 0.0309398 0.0486211
0.0323228 0.0134753 0.0046345
0.0296399 0.0334242 0.0695046
0.0358169 0.00429558 0.0103665
0.00627783 0.0181318 0.0140435
0.0295977 0.00423584 0.0272763
0.0231635 0.0117354 0.109432
0.011366 0.0183375 0.00419624
0.0142832 0.00734402 0.0555593
0.0370222 0.0109025 0.0240493
0.0204189 0.0310344 0.0734511
0.0310839 0.00754204 0.0418961
0.0309797 0.00425169 0.0784646
0.028078 0.00929771 0.0706192
0.0343923 0.00772764 0.0651337
0.0136155 0.0117511 0.0408802
0.0126149 0.0162716 0.102223
0.0308854 0.0140549 0.0290564
0.0121643 0.00414273 0.0240899
0.00408881 0.0298498 0.106939
0.0128467 0.0191013 0.0680593
0.0173814 0.0234053 0.0525128
0.0318925 0.0207946 0.0154825
0.0107422 0.0321632 0.101273
0.0284427 0.026228 0.108852
0.00413853 0.0292188 0.00414064
0.0233349 0.0272254 0.0256562
0.0157954 0.003998 0.00412614
0.00556736 0.0285264 0.0949013
0.00776033 0.0266083 0.0834798
0.0212696 0.0139869 0.0530781
0.0297309 0.00672149 0.0876349
0.0126674 0.00749267 0.0827987
0.0220169 0.00404562 0.0554628
0.0102341 0.0200898 0.0552462
0.0356362 0.0302338 0.108471
0.0125174 0.0117789 0.0273767
0.0287979 0.0196784 0.0964496
0.00920529 0.0299797 0.0683378
0.0163521 0.0254082 0.0150934
0.0244324 0.0201497 0.0616606
0.0362528 0.0107817 0.090484
0.0151732 0.0206644 0.0758857
0.00830519 0.0139946 0.0933124
0.0312669 0.0219996 0.0037046
0.024078 0.0253584 0.0678564
0.0202207 0.02408 0.0415414
0.00462997 0.0304011 0.023842
0.0135614 0.00687784 0.105742
0.0109918 0.0241486 0.0993206
0.0360214 0.0305011 0.0229135
0.0345577 0.0076522 0.105678
0.0129111 0.0194355 0.0247443
0.0321173 0.0232939 0.081993
0.0285413 0.0158049 0.0561685
0.00385409 0.00389616 0.0852904
0.0145715 0.0138203 0.109699
0.0184802 0.0242605 0.0963205
0.024431 0.0319328 0.0580038
0.00797859 0.0224798 0.0374301
0.0312271 0.0317494 0.030199
0.0112362 0.0147763 0.0612177
0.0106471 0.00907133 0.0664654
0.00394042 0.00857123 0.078867
0.00385091 0.0205578 0.0950745
0.00389309 0.00951376 0.0379843
0.0124683 0.00916029 0.0981727
0.0238808 0.0226082 0.101871
0.01141 0.0264561 0.106876
0.0196819 0.0102097 0.101907
0.00369297 0.0329005 0.0775593
0.00370172 0.0209528 0.0753555
0.0264294 0.0179472 0.0705654
0.016648 0.0308591 0.0923761
0.00946951 0.0355529 0.0625952
0.0155017 0.0116295 0.0063358
0.0374912 0.0299023 0.0831608
0.0220928 0.0301012 0.10039
0.0315778 0.0255174 0.0705722
0.00632944 0.019347 0.0877487
0.0222897 0.0307618 0.0120779
0.0146878 0.0301931 0.0850132
0.019439 0.0313325 0.0192972
0.0206648 0.0149477 0.0197844
0.00420204 0.0168193 0.0335701
0.0228603 0.0201153 0.0912167
0.00455112 0.0106522 0.0994943
0.031255 0.00372113 0.00365881
0.0317905 0.0130921 0.013167
0.0042752 0.00381362 0.0206788
0.0126611 0.020338 0.0833864
0.0239015 0.0330246 0.0466882
0.00374977 0.00380528 0.0960526
0.00408613 0.0159992 0.081211
0.0231133 0.0353059 0.111121
0.0145055 0.00363806 0.0703974
0.0355409 0.00888873 0.0736416
0.0207336 0.0160529 0.00987957
0.0171065 0.0108636 0.0339671
0.0175074 0.0182617 0.0585305
0.0193945 0.0356179 0.0255905
0.0280704 0.00800397 0.00889057
0.0234825 0.032748 0.031198
0.0177418 0.0328629 0.0637536
0.0241463 0.0110887 0.0143721
0.0351932 0.00748814 0.113314
0.0348677 0.0293138 0.0497949
0.00648932 0.0362225 0.0360971
0.0301739 0.00355215 0.0947563
0.00367478 0.0163227 0.00369252
0.0262473 0.0210004 0.0211367
0.0318967 0.0214806 0.103439
0.0166768 0.0238811 0.0887962
0.00561261 0.0137481 0.0560737
0.0352353 0.037092 0.0651493
0.0262334 0.0204222 0.028492
0.0193862 0.0262777 0.0341578
0.0116356 0.0277651 0.0556888
0.00373131 0.0124671 0.063214
0.00899568 0.0362945 0.00574565
0.0167595 0.0125074 0.0922811
0.00369355 0.00361632 0.00382625
0.0179792 0.0326012 0.106241
0.0140932 0.0306152 0.0370537
0.00371089 0.00406578 0.111069
0.0204666 0.0164483 0.0973864
0.0351502 0.00358772 0.021556
0.0292537 0.0279645 0.045061
0.0192926 0.0035318 0.0815882
0.0178125 0.0234268 0.0637682
0.0234911 0.00531499 0.00364646
0.024491 0.00876377 0.0794328
0.00963709 0.00805216 0.0739272
0.0186521 0.00801529 0.021927
0.0161198 0.0232711 0.007958
0.00352413 0.0354576 0.0508767
0.0237482 0.0190081 0.0784393
0.03324 0.00359909 0.0483474
0.00338851 0.0213407 0.0522152
0.0173171 0.0223212 0.105377
0.0374566 0.0258442 0.101235
0.00360416 0.0340292 0.0580816
0.0371812 0.0188712 0.0991131
0.00356406 0.019093 0.021363
0.0328246 0.0295601 0.077286
0.0328041 0.017942 0.0226162
0.0048118 0.023414 0.0269197
0.034886 0.022147 0.112571
0.028654 0.0132691 0.0922329
0.0149327 0.0195636 0.0381059
0.0254966 0.0165927 0.0457115
0.0193678 0.0189148 0.00334568
0.0073007 0.00993421 0.00355608
0.00335554 0.033678 0.100202
0.0313318 0.0226207 0.0594945
0.0139821 0.010899 0.0486002
0.00354078 0.0220724 0.107405
0.0249571 0.00567111 0.0993509
0.0297004 0.027612 0.0547536
0.0277756 0.0179766 0.00917056
0.0339156 0.0344489 0.00335603
0.0341993 0.0204538 0.0407842
0.0261141 0.0296046 0.0942953
0.012123 0.0139367 0.0868035
0.0222693 0.012427 0.00343672
0.0241462 0.00345885 0.0215737
0.0345852 0.00307116 0.0590694
0.00346534 0.0277285 0.0169227
0.0258727 0.019036 0.108024
0.0106705 0.00341125 0.0938773
0.0224427 0.0360533 0.0681574
0.00335752 0.00998667 0.0454351
0.0266148 0.0246753 0.0869394
0.0151292 0.0278583 0.0780862
0.0255003 0.0369009 0.0525388
0.0254852 0.00347876 0.0655346
0.0224179 0.00365477 0.0726243
0.0156106 0.0351156 0.00844451
0.0207893 0.00334239 0.00989914
0.00493782 0.0114538 0.10901
0.0259429 0.0260794 0.0370826
0.0281783 0.00541265 0.0594477
0.0128372 0.0246714 0.0424233
0.0229967 0.00938238 0.0937263
0.0374898 0.00769989 0.0806699
0.00338541 0.0249187 0.0692457
0.0100585 0.0197137 0.109493
0.0353568 0.028948 0.0355541
0.032664 0.0126496 0.0790328
0.00335659 0.0104787 0.00921789
0.0122323 0.0327594 0.110291
0.016917 0.0251138 0.0222927
0.0354338 0.0195455 0.0693155
0.0252289 0.00931615 0.0308934
0.0237913 0.0239033 0.0138371
0.00322023 0.0327219 0.0648939
0.0357616 0.0278733 0.00335542
0.0363901 0.00848829 0.0167743
0.0233674 0.0106057 0.0870585
0.0163366 0.0314512 0.0304478
0.0140497 0.0181386 0.0448057
0.0218831 0.00694119 0.0374435
0.0109372 0.0233736 0.0486577
0.0309241 0.0343033 0.0558224
0.00313716 0.0181968 0.0406029
0.00331468 0.0123217 0.0872915
0.0176469 0.0151175 0.0799579
0.0191142 0.0228424 0.0820547
0.0327982 0.0360589 0.049881
0.00318949 0.0115372 0.0289102
0.0370332 0.0136846 0.0839692
0.00859021 0.0297273 0.0411967
0.0265289 0.0326896 0.105563
0.0332311 0.0278067 0.063966
0.0374529 0.0246632 0.088083
0.0116391 0.0032007 0.0498399
0.0128944 0.0141169 0.073424
0.0107256 0.00319795 0.11129
0.029294 0.0294442 0.00313603
0.0164518 0.018024 0.0150771
0.0178775 0.028008 0.0587485
0.0321756 0.0156073 0.0450973
0.00818581 0.00839886 0.0597161
0.0184556 0.00548335 0.0966736
0.0156391 0.0249467 0.0285972
0.0200108 0.0125281 0.0460593
0.003155 0.00851662 0.0154994
0.00322067 0.00381116 0.054837
0.0109412 0.0216767 0.0925587
0.0159194 0.0272248 0.0689983
0.0199082 0.0312734 0.00539439
0.0066338 0.0166124 0.0269126
0.0371941 0.00320013 0.0427324
0.0297804 0.033358 0.111166
0.0345492 0.0186022 0.0879472
0.0378283 0.00308764 0.0533262
0.0178818 0.0173085 0.0871006
0.0240849 0.0117596 0.0412368
0.0383391 0.0347593 0.046964
0.0127682 0.0282711 0.0624136
0.0109088 0.0274076 0.0901173
0.00403709 0.033468 0.0444314
0.00974991 0.0127939 0.0787885
0.0272516 0.0209101 0.0408778
0.0298679 0.0339053 0.0621401
0.00750376 0.00309296 0.105491
0.0318725 0.0249334 0.0213232
0.0394388 0.0181983 0.0236854
0.00311947 0.0274921 0.0381595
0.032156 0.0212021 0.0345057
0.017613 0.00678618 0.0284586
0.0252332 0.017792 0.0152509
0.0304681 0.0205285 0.075636
0.011565 0.022224 0.0617839
0.0127529 0.00302792 0.0771354
0.0367763 0.00288782 0.0279531
0.0123146 0.0157654 0.0333289
0.0281504 0.0108503 0.103681
0.0302915 0.0256208 0.0270583
0.00943709 0.020579 0.0308255
0.0347751 0.0281683 0.0114003
0.0385618 0.0109503 0.00781478
0.0226246 0.0263767 0.0477137
0.0259959 0.0127471 0.0983323
0.0212692 0.00744971 0.0492747
0.00287035 0.0310954 0.0710175
0.0103503 0.00283337 0.0875088
0.0195836 0.0185266 0.0477784
0.0303117 0.0264041 0.0982664
0.0323989 0.0148922 0.0725365
0.00507927 0.0367673 0.0713619
0.0117417 0.0208789 0.0180086
0.0124257 0.0157378 0.0108576
0.0197514 0.0163278 0.104942
0.0334489 0.00292696 0.100638
0.0291283 0.0191961 0.113577
0.0169357 0.0340148 0.0983441
0.0220931 0.0128399 0.0723071
0.0261891 0.002864 0.0394383
0.0289961 0.0318604 0.023621
0.0379486 0.00304702 0.0761355
0.0199743 0.0190474 0.0685507
0.00586271 0.0186212 0.101387
0.0142587 0.0144285 0.0540617
0.0264054 0.0147451 0.0235099
0.0232024 0.00280832 0.0938338
0.0093823 0.00482437 0.00700614
0.00283139 0.00975057 0.0929848
0.0345409 0.0235499 0.0951757
0.0163781 0.00292605 0.0329262
0.0160106 0.0276464 0.046968
[...]
POINT_DATA 32442
SCALARS radius double 1
LOOKUP_TABLE default
0.00452337
0.00452133
0.00451725
0.00451623
0.00450604
0.004504
0.00450196
0.0044938
0.00447647
0.00445607
0.00445302
0.00444894
0.0044469
0.00444282
0.00443874
0.0044367
0.00443262
0.00442956
0.00442548
0.00442243
0.00441835
0.00441631
0.00441121
0.00440713
0.00440407
0.00440305
0.00439897
0.00439693
0.00439388
0.00439082
0.00438674
0.00438572
0.00438266
0.0043796
0.00436227
0.00435717
0.00435615
0.00434901
0.00434391
0.00433779
0.00432862
0.00432658
0.0043225
0.00431536
0.00431026
0.0043072
0.00430618
0.00430109
0.00429599
0.00429497
0.00429293
0.00427865
0.00427661
0.00427356
0.00425826
0.00425724
0.00424704
0.004245
0.00424195
0.00423379
0.00422257
0.00422155
0.00421136
0.00420422
0.0042032
0.00420116
0.00420014
0.00416649
0.00416037
0.00415833
0.00415629
0.00415426
0.00414712
0.00413284
0.0041308
0.00412265
0.00412061
0.00411857
0.00411347
0.00410225
0.00410123
0.0040941
0.00409308
0.00408288
0.00407472
0.00406249
0.00406045
0.00405841
0.00404821
0.00404719
0.00404209
0.00403597
0.00403292
0.0040319
0.00403088
0.00402374
0.00401456
0.00400742
0.00400538
0.00399621
0.00399519
0.00399111
0.00398805
0.00398397
0.00397989
0.00397378
0.0039697
0.00395542
0.0039544
0.00394522
0.00394319
0.00394217
0.00393707
0.00393299
0.00392585
0.00391871
0.00391769
0.00391464
0.00390648
0.00389526
0.00389322
0.00388914
0.0038871
0.00388201
0.00387997
0.00387895
0.00387589
0.00386467
0.00385753
0.0038504
0.00384632
0.00383612
0.00382796
0.00382491
0.00381879
0.00381675
0.00381165
0.00380961
0.00380757
0.00380553
0.00380349
0.00379737
0.00379635
0.00379533
0.00379228
0.00379126
0.00378616
0.00377596
0.0037729
0.00377086
0.0037678
0.00376475
0.00376271
0.00375557
0.00374741
0.00374537
0.00373823
0.00373721
0.00373008
0.00372906
0.00372804
0.00372192
0.0037209
0.00371172
0.00370255
0.00369847
0.00369745
0.00369133
0.00368623
0.00368113
0.00367501
0.00366584
0.00365972
0.0036587
0.00365666
0.00365258
0.00365054
0.00364646
0.00364443
0.00364035
0.00363831
0.00362811
0.00362607
0.00361893
0.00361486
0.0036118
0.00360874
0.00360772
0.0036067
0.00360058
0.00359956
0.00359344
0.0035914
0.00358732
0.00358427
0.00358121
0.00357611
0.00357407
0.00356387
0.00356081
0.00355775
0.00355673
0.00355062
0.00353328
0.00353022
0.00351391
0.00351187
0.00350473
0.00349861
0.00349657
0.00349555
0.00349148
0.00348944
0.00348536
0.0034772
0.00347516
0.00346191
0.00345987
0.00345579
0.00345273
0.00344151
0.00344049
0.00343438
0.00342622
0.00341296
0.00340786
0.00339053
0.00338747
0.00338441
0.00337931
0.00337523
0.00337422
0.00337014
0.00336708
0.003363
0.00335688
0.00335586
0.00335484
0.00335382
0.0033528
0.00334668
0.00332935
0.00332731
0.00332425
0.00331711
0.00331406
0.00330794
0.0033059
0.00330284
0.00330182
0.00329774
0.00328958
0.00327939
0.00327633
0.00327123
0.00326613
0.00326205
0.00324778
0.00324574
0.0032437
0.00324064
0.00323962
0.00323044
0.00322738
0.00322331
0.00322127
0.00322025
0.00321821
0.00321515
0.00320801
0.00320087
0.00319883
0.00319272
0.00318966
0.00318558
0.00317538
0.00316926
0.00316722
0.00315703
0.00315601
0.00315397
0.00314275
0.00313867
0.00313154
0.00312644
0.00312236
0.00312134
0.0031193
0.00311216
0.00310197
0.00309891
0.00309279
0.00309177
0.00308769
0.00308565
0.00308463
0.00308055
0.00307851
0.00307342
0.00306832
0.00306526
0.00306424
0.00306016
0.00305812
0.00305608
0.00305404
0.00304894
0.0030469
0.00303875
0.00302855
0.00302549
0.00302039
0.00300816
0.003
0.00299388
0.00298878
0.00298369
0.00297961
0.00297655
0.00297247
0.00296839
0.00296329
0.00296227
0.00296023
0.00295208
0.00295106
0.00294494
0.0029276
0.00292556
0.00292353
0.00292047
0.00291843
0.00291333
0.00289803
0.00289599
0.00289498
0.0028858
0.00288478
0.00288172
0.00287764
0.0028756
0.00287356
0.00286846
0.00286744
0.00286642
0.00286337
0.00286031
0.00285113
0.00284399
0.00284093
0.00283991
0.00283787
0.00283685
0.00283583
0.00282768
0.00282258
0.00282156
0.00282054
0.00281748
0.00281136
0.00280932
0.0028083
0.00280626
0.00280524
0.00280117
0.00280015
0.00279709
0.00278893
0.00278383
0.00278077
0.00277669
0.00276956
0.00276548
0.00275936
0.00275834
0.00275018
0.00274712
0.0027461
0.00274508
0.00273693
0.00273489
0.00271653
0.00271144
0.00270736
0.00270532
0.0027043
0.00269512
0.00269206
0.00269002
0.00268798
0.00267779
0.00267677
0.00267473
0.00267167
0.00266861
0.00266453
0.00266249
0.00265943
0.00265434
0.00264924
0.0026421
0.00263904
0.002637
0.0026319
0.00262477
0.00262273
0.00261661
0.00261457
0.00261151
0.00260233
0.00259723
0.00259621
0.00259316
0.00258602
0.00257786
0.00257378
0.00256766
0.00256664
0.00256461
0.00256359
0.00256053
0.00255033
0.00254013
0.00253809
0.00253707
0.00252892
0.0025279
0.00252586
0.00252382
0.00252076
0.00251464
0.00250139
0.00249221
0.00248711
0.00248405
0.00247997
0.00247895
0.00247386
0.00247284
0.00245754
0.00244938
0.00244429
0.00244225
0.00243103
0.00241675
0.00241573
0.0024086
0.00240248
0.00239942
0.00239636
0.0023882
0.00238413
0.00238209
0.00238005
0.00237495
0.00236985
0.00236781
0.00236679
0.00234946
0.00234844
0.00234538
0.00234436
0.00234334
0.00233722
0.0023362
0.00233212
0.00232397
0.00232295
0.00231683
0.00231581
0.00231377
0.00231173
0.00231071
0.00230663
0.00229847
0.00229541
0.00229338
0.00229236
0.00229032
0.0022893
0.00228828
0.0022842
0.00228216
0.00228114
0.00227808
0.00227094
0.00226279
0.00226075
0.00225565
0.00225463
0.00225361
0.00224749
0.00223933
0.00223118
0.002222
0.00221996
0.00221792
0.00221588
0.00221282
0.00221078
0.0022067
0.00220467
0.00219447
0.00219141
0.00218835
0.00218733
0.00218427
0.00217
0.00216694
0.0021649
0.00216184
0.00215776
0.00215674
0.00214349
0.00213941
0.00213635
0.00212921
0.00212513
0.00212309
0.00212003
0.00210576
0.00209862
0.0020976
0.00209658
0.00209556
0.0020925
0.00208231
0.00208027
0.00207823
0.00207109
0.00207007
0.00206599
0.00205783
0.00204356
0.00203744
0.0020354
0.00203132
0.00202826
0.00202724
0.00202622
0.00200175
0.00199767
0.00199665
0.0019936
0.00197728
0.00197626
0.00197524
0.00197422
0.00197218
0.00197116
0.0019681
0.00196504
0.00195587
0.00195281
0.00194465
0.00194261
0.00194057
0.00193344
0.00193242
0.0019314
0.00192528
0.0019161
0.00189877
0.00189163
0.00188551
0.00188245
0.00188143
0.00187939
0.00187531
0.00186512
0.00186308
0.00186206
0.00186002
0.00185696
0.00182433
0.00182025
0.00181923
0.00181617
0.00181108
0.00180598
0.00180394
0.00179986
0.00179578
0.0017917
0.00178049
0.00177539
0.00177131
0.00176213
0.00175194
0.00174582
0.00174378
0.00173766
0.00173358
0.00172746
0.00172542
0.00172441
0.00172033
0.00171625
0.00171523
0.00171217
0.00170707
0.00170401
0.00169891
0.00169687
0.00168668
0.00168362
0.00168158
0.00168056
0.0016775
0.0016724
0.00165711
0.00164895
0.00164487
0.00164181
0.00162448
0.00161836
0.00161734
0.00161428
0.0016051
0.00160409
0.00160205
0.00159185
0.00158981
0.00158267
0.00157757
0.00157452
0.00157248
0.00157044
0.00156942
0.0015684
0.00155412
0.00154495
0.00153883
0.00151232
0.00150824
0.00150518
0.00150416
0.00150008
0.00149906
0.00149804
0.00148886
0.00148784
0.00148479
0.00147765
0.00147663
0.00147561
0.00147459
0.00147255
0.00452337
0.00452133
0.00451725
0.00451623
0.0045142
0.0045091
0.00450604
0.004504
0.00450196
0.00450094
0.0044938
0.00448666
0.00447647
0.00447341
0.00447137
0.00446423
0.00446321
0.00446117
0.00445607
0.00445505
0.00445302
0.00444894
0.0044469
0.00444384
0.00444282
0.00443874
0.0044367
0.00443262
0.00442956
0.00442548
0.00442243
0.00441835
0.00441631
0.00441121
0.00440713
0.00440407
0.00440305
0.00440101
0.00439897
0.00439795
0.00439693
0.00439388
0.00439082
0.00438674
0.00438572
0.00438266
0.0043796
0.0043745
0.00436736
0.00436227
0.00435717
0.00435615
0.00434901
0.00434391
0.00434085
0.00433779
0.00433066
0.00432862
0.00432658
0.0043225
0.00431536
0.00431332
0.00431026
0.0043072
0.00430618
0.00430313
0.00430109
0.00429905
0.00429599
0.00429497
0.00429293
0.00428783
0.00427865
0.00427763
0.00427661
0.00427356
0.0042705
0.00425826
0.00425724
0.00425214
0.00424704
0.004245
0.00424195
0.00423583
0.00423379
0.00422767
0.00422563
0.00422257
0.00422155
0.00422053
0.00421645
0.00421136
0.0042083
0.00420422
0.0042032
0.00420116
0.00420014
0.00419096
0.00418994
0.00418077
0.00417261
0.00416649
0.00416547
0.00416037
0.00415833
0.00415629
0.00415426
0.00415222
0.00414712
0.00414508
0.00414304
0.00413284
0.0041308
0.0041257
0.00412265
0.00412061
0.00411857
0.00411347
0.00410531
0.00410225
0.00410123
0.00409613
0.0040941
0.00409308
0.0040839
0.00408288
0.00407472
0.00407166
0.0040686
0.00406249
0.00406045
0.00405943
0.00405841
0.00405433
0.00404821
0.00404719
0.00404413
0.00404209
0.00403597
0.00403292
0.0040319
0.00403088
0.00402884
0.00402578
0.00402374
0.00401456
0.00401354
0.00400742
0.00400538
0.00399621
0.00399519
0.00399111
0.00398907
0.00398805
0.00398499
0.00398397
0.00398193
0.00398091
0.00397989
0.00397887
0.00397378
0.0039697
0.00396664
0.0039646
0.00396256
0.00396052
0.00395542
0.0039544
0.00394522
0.00394421
0.00394319
0.00394217
0.00394013
0.00393707
0.00393503
0.00393401
0.00393299
0.00392993
0.00392585
0.00391871
0.00391769
0.00391667
0.00391464
0.00391362
0.00391158
0.00391056
0.00390648
0.00390342
0.0039024
0.00390138
0.0038973
0.00389526
0.00389322
0.00388914
0.0038871
0.00388608
0.00388201
0.00387997
0.00387895
0.00387691
0.00387589
0.00386773
0.00386671
0.00386467
0.00386365
0.00386161
0.00386059
0.00385753
0.00385346
0.0038504
0.00384734
0.00384632
0.0038453
0.00383918
0.00383612
0.0038351
0.00383102
0.00382796
0.00382491
0.00381981
0.00381879
0.00381675
0.00381573
0.00381165
0.00381063
0.00380961
0.00380859
0.00380757
0.00380553
0.00380349
0.00380145
0.00379941
0.00379737
0.00379635
0.00379533
0.00379432
0.00379228
0.00379126
0.00378616
0.00378004
0.003778
0.00377596
0.0037729
0.00377086
0.0037678
0.00376475
0.00376271
0.00376169
0.00375557
0.00375251
0.00374843
0.00374741
0.00374537
0.00374231
0.00373925
0.00373823
0.00373721
0.00373008
0.00372906
0.00372804
0.003726
0.00372192
0.0037209
0.00371682
0.00371478
0.00371172
0.00370866
0.00370662
0.00370357
0.00370255
0.00370051
0.00369847
0.00369745
0.00369643
0.00369541
0.00369235
0.00369133
0.00368929
0.00368623
0.00368419
0.00368113
0.00367603
0.00367501
0.00367196
0.00366584
0.0036638
0.00365972
0.0036587
0.00365666
0.0036536
0.00365258
0.00365054
0.00364748
0.00364646
0.00364443
0.00364035
0.00363831
0.00362811
0.00362607
0.00362403
0.00362097
0.00361893
0.00361486
0.0036118
0.00360874
0.00360772
0.0036067
0.00360058
0.00359956
0.00359344
0.0035914
0.00358732
0.00358427
0.00358121
0.00357611
0.00357407
0.00356387
0.00356081
0.00355877
0.00355775
0.00355673
0.00355571
0.0035547
0.00355164
0.00355062
0.00353634
0.00353328
0.00353124
0.00353022
0.0035292
0.00351697
0.00351391
0.00351187
0.00350473
0.00349861
0.00349759
0.00349657
0.00349555
0.00349148
0.00348944
0.0034874
0.00348536
0.00348026
0.0034772
0.00347618
0.00347516
0.0034721
0.00346191
0.00345987
0.00345681
0.00345579
0.00345273
0.00344967
0.00344763
0.00344559
0.00344151
0.00344049
0.00343438
0.00343234
0.00342724
0.00342622
0.00342316
0.00341602
0.00341296
0.00340786
0.00340481
0.00339767
0.00339053
0.00338747
0.00338441
0.00338339
0.00337931
0.00337829
0.00337523
0.00337422
0.00337014
0.00336708
0.003363
0.00336096
0.0033579
0.00335688
0.00335586
0.00335484
0.00335382
0.0033528
0.00334872
0.0033477
0.00334668
0.00334261
0.00333955
0.00332935
0.00332731
0.00332425
0.00332119
0.00331711
0.00331406
0.00331304
0.00330794
0.0033059
0.00330284
0.00330182
0.00329774
0.00328958
0.00328347
0.00328245
0.00327939
0.00327735
0.00327633
0.00327531
0.00327123
0.00327021
0.00326919
0.00326613
0.00326511
0.00326205
0.00325186
0.00324778
0.00324676
0.00324574
0.0032437
0.00324064
0.00323962
0.0032335
0.00323044
0.00322738
0.00322331
0.00322127
0.00322025
0.00321923
0.00321821
0.00321515
0.00321413
0.00320801
0.00320393
0.00320291
0.00320087
0.00319883
0.00319272
0.00318966
0.00318558
0.00317538
0.00316926
0.00316824
0.00316722
0.00315703
0.00315601
0.00315397
0.00314683
0.00314275
0.00314071
0.00313867
0.00313154
0.00312644
0.00312236
0.00312134
0.0031193
0.00311522
0.00311216
0.00310197
0.00309891
0.00309789
0.00309279
0.00309177
0.00308769
0.00308565
0.00308463
0.00308157
0.00308055
0.00307851
0.00307647
0.00307342
0.00307036
0.00306832
0.00306628
0.00306526
0.00306424
0.00306322
0.00306016
0.00305812
0.00305608
0.00305404
0.00305302
0.00305098
0.00304894
0.0030469
0.00304385
0.00304181
0.00303875
0.00303569
0.00303161
0.00302855
0.00302549
0.00302447
0.00302039
0.00301937
0.00300816
0.003
0.00299796
0.00299694
0.00299388
0.00299286
0.00298878
0.00298674
0.00298369
0.00298267
0.00298165
0.00297961
0.00297655
0.00297553
0.00297349
0.00297247
0.00297145
0.00296941
0.00296839
0.00296431
0.00296329
0.00296227
0.00296023
0.00295921
0.00295513
0.00295412
0.00295208
0.00295106
0.00295004
0.00294698
0.00294494
0.00293678
0.00293474
0.0029327
0.00293168
0.00292964
0.0029276
0.00292556
0.00292353
0.00292047
0.00291843
0.00291435
0.00291333
0.00291129
0.00290721
0.00289803
0.00289599
0.00289498
0.00288784
0.0028858
0.00288478
0.00288274
0.00288172
0.0028807
0.00287764
0.0028756
0.00287356
0.0028705
0.00286846
0.00286744
0.00286642
0.00286337
0.00286031
0.00285827
0.00285521
0.00285113
0.00284807
0.00284501
0.00284399
0.00284093
0.00283991
0.00283787
0.00283685
0.00283583
0.00282768
0.00282258
0.00282156
0.00282054
0.00281748
0.00281136
0.00280932
0.0028083
0.00280626
0.00280524
0.00280423
0.00280117
0.00280015
0.00279709
0.00279301
0.00279097
0.00278893
0.00278383
0.00278077
0.00277669
0.00276956
0.00276548
0.00276038
0.00275936
0.00275834
0.0027563
0.00275528
0.00275426
0.00275018
0.00274712
0.0027461
0.00274508
0.00274407
0.00274305
0.00273693
0.00273591
0.00273489
0.00273183
0.00272979
0.00271857
0.00271653
0.0027145
0.00271246
0.00271144
0.00270736
0.00270532
0.0027043
0.00270022
0.00269512
0.00269206
0.00269002
0.002689
0.00268798
0.00267779
0.00267677
0.00267473
0.00267167
0.00266861
0.00266453
0.00266249
0.00266147
0.00265943
0.00265434
0.00264924
0.00264822
0.0026421
0.00264108
0.00263904
0.002637
0.0026319
0.00262986
0.0026268
0.00262477
0.00262273
0.00261661
0.00261457
0.00261151
0.00260233
0.00260131
0.00259723
0.00259621
0.00259418
0.00259316
0.00259214
0.00259112
0.0025901
0.00258602
0.0025799
0.00257786
0.00257582
0.00257378
0.00257276
0.00256766
0.00256664
0.00256461
0.00256359
0.00256155
0.00256053
0.00255441
0.00255339
0.00255033
0.00254625
0.00254523
0.00254421
0.00254013
0.00253809
0.00253707
0.00253605
0.00253096
0.00252892
0.0025279
0.00252586
0.00252484
0.00252382
0.00252076
0.00251872
0.00251464
0.00251362
0.0025075
0.00250139
0.00249221
0.00249017
0.00248813
0.00248711
0.00248405
0.00248201
0.00247997
0.00247895
0.00247386
0.00247284
0.0024657
0.0024606
0.00245754
0.00245142
0.00244938
0.00244429
0.00244225
0.00243715
0.00243307
0.00243103
0.00242797
0.00241675
0.00241573
0.00241268
0.0024086
0.00240248
0.00240146
0.00239942
0.00239636
0.00239228
0.00239024
0.0023882
0.00238514
0.00238413
0.00238209
0.00238005
0.00237495
0.00237291
0.00237087
0.00236985
0.00236781
0.00236679
0.00236373
0.00236067
0.00235863
0.00235659
0.00234946
0.00234844
0.00234742
0.00234538
0.00234436
0.00234334
0.00233722
0.0023362
0.00233212
0.002326
0.00232397
0.00232295
0.00231683
0.00231581
0.00231377
0.00231173
0.00231071
0.00230867
0.00230663
0.00230459
0.00229949
0.00229847
0.00229643
0.00229541
0.0022944
0.00229338
0.00229236
0.00229032
0.0022893
0.00228828
0.0022842
0.00228216
0.00228114
0.00228012
0.00227808
0.00227604
0.002274
0.00227298
0.00227094
0.0022689
0.00226279
0.00226177
0.00226075
0.00225871
0.00225565
0.00225463
0.00225361
0.00225055
0.00224749
0.00223933
0.0022322
0.00223118
0.002222
0.00222098
0.00221996
0.00221792
0.00221588
0.00221486
0.00221282
0.0022118
0.00221078
0.0022067
0.00220467
0.00219753
0.00219651
0.00219447
0.00219141
0.00218835
0.00218733
0.00218427
0.00218223
0.00218019
0.00217
0.00216694
0.0021649
0.00216184
0.00215776
0.00215674
0.00215062
0.00214858
0.00214349
0.00214043
0.00213941
0.00213635
0.00213533
0.00213227
0.00212921
0.00212615
0.00212513
0.00212309
0.00212003
0.0021129
0.00211188
0.00211086
0.00210882
0.00210678
0.00210576
0.00210372
0.00210066
0.00209862
0.0020976
0.00209658
0.00209556
0.00209352
0.0020925
0.00209148
0.00208944
0.00208435
0.00208231
0.00208027
0.00207823
0.00207721
0.00207619
0.00207517
0.00207415
0.00207109
0.00207007
0.00206599
0.00205885
0.00205783
0.00205274
0.00204662
0.00204356
0.00204254
0.00203744
0.00203642
0.0020354
0.00203132
0.00202826
0.00202724
0.00202622
0.00202215
0.00202011
0.00201603
0.00201195
0.00200787
0.00200175
0.00199767
0.00199665
0.0019936
0.00199258
0.0019783
0.00197728
0.00197626
0.00197524
0.00197422
0.00197218
0.00197116
0.0019681
0.00196504
0.00195587
0.00195281
0.00194465
0.00194261
0.00194057
0.00193853
0.00193344
0.00193242
0.0019314
0.00192732
0.0019263
0.00192528
0.00192018
0.0019161
0.00191406
0.001911
0.00190692
0.00189877
0.00189163
0.00188755
0.00188551
0.00188245
0.00188143
0.00187939
0.00187531
0.00186512
0.00186308
0.00186206
0.00186002
0.00185696
0.00185594
0.0018539
0.00185186
0.00184371
0.00183351
0.00183147
0.00183045
0.00182433
0.00182331
0.00182025
0.00181923
0.00181617
0.00181108
0.00180598
0.00180394
0.00179986
0.00179578
0.0017917
0.00179068
0.00178355
0.00178049
0.00177641
0.00177539
0.00177131
0.00176927
0.00176315
0.00176213
0.00176009
0.00175907
0.00175805
0.00175703
0.00175601
0.00175194
0.00174582
0.00174378
0.00174276
0.00173766
0.00173358
0.0017295
0.00172746
0.00172542
0.00172441
0.00172033
0.00171625
0.00171523
0.00171319
0.00171217
0.00171115
0.00170707
0.00170401
0.00170299
0.00169891
0.00169687
0.00169484
0.00168668
0.00168566
0.00168362
0.00168158
0.00168056
0.00167954
0.0016775
0.00167648
0.0016724
0.00166934
0.00166628
0.00166323
0.00166017
0.00165711
0.00164895
0.00164487
0.00164181
0.00162958
0.00162448
0.00162346
0.00162142
0.00161938
0.00161836
0.00161734
0.0016153
0.00161428
0.00160612
0.0016051
0.00160409
0.00160307
0.00160205
0.00159695
0.00159389
0.00159185
0.00158981
0.00158675
0.00158267
0.00158063
0.00157757
0.00157655
0.00157452
0.00157248
0.00157044
0.00156942
0.0015684
0.00156636
0.00156432
0.00155412
0.00154698
0.00154495
0.00153883
0.00153475
0.00153169
0.00153067
0.00152965
0.00152557
0.00152047
0.00151741
0.00151436
0.00151232
0.0015113
0.00151028
0.00150824
0.00150518
0.00150416
0.00150008
0.00149906
0.00149804
0.001496
0.0014909
0.00148886
0.00148784
0.00148682
0.00148479
0.00147765
0.00147663
0.00147561
0.00147459
0.00147255
0.00452337
0.00452133
0.00451725
0.0045142
0.0045091
0.00450604
0.004504
0.00450094
0.00448666
0.00447341
0.00447137
0.00446423
0.00446321
0.00446117
0.00445505
0.00445302
0.00444894
0.00444384
0.00444282
0.00443874
0.0044367
0.00442956
0.00442243
0.00440407
0.00440305
0.00440101
0.00439897
0.00439795
0.00439693
0.00439388
0.00439082
0.00438674
0.0043745
0.00436736
0.00435615
0.00434085
0.00433779
0.00433066
0.00432658
0.0043225
0.00431536
0.00431332
0.0043072
0.00430313
0.00430109
0.00429905
0.00429497
0.00428783
0.00427763
0.00427356
0.0042705
0.00425724
0.00425214
0.00424704
0.00423583
0.00422767
0.00422563
0.00422257
0.00422053
0.00421645
0.0042083
0.00420422
0.0042032
0.00420116
0.00419096
0.00418994
0.00418077
0.00417261
0.00416547
0.00415222
0.00414508
0.00414304
0.0041308
0.0041257
0.00411857
0.00410531
0.00409613
0.00409308
0.0040839
0.00407472
0.00407166
0.0040686
0.00406249
0.00405943
0.00405433
0.00404821
0.00404413
0.00404209
0.00402884
0.00402578
0.00401354
0.00400742
0.00400538
0.00398907
0.00398499
0.00398397
0.00398193
0.00398091
0.00397887
0.00396664
0.0039646
0.00396256
0.00396052
0.00394421
0.00394013
0.00393503
0.00393401
0.00393299
0.00392993
0.00391667
0.00391362
0.00391158
0.00391056
0.00390648
0.00390342
0.0039024
0.00390138
0.0038973
0.00389322
0.00388914
0.0038871
0.00388608
0.00387895
0.00387691
0.00387589
0.00386773
0.00386671
0.00386467
0.00386365
0.00386161
0.00386059
0.00385346
0.00384734
0.0038453
0.00383918
0.0038351
0.00383102